8
Step 0: E=-225.79206122 Ha, F=0.113224 Ha/Bohr
C -0.94412160 -0.15607807 0.11160589
C 0.45812243 0.33592191 -0.03056173
O 1.33446674 -0.66410371 -0.23797242
O 0.82980813 1.49528670 0.02505565
H -1.25197997 -0.66731860 -0.80380305
H -1.61078864 0.69488425 0.27758890
H -1.01566641 -0.82821210 0.97022938
H 2.20015932 -0.21038037 -0.31214262
8
Step 1: E=-225.30304514 Ha, F=0.382003 Ha/Bohr
C -1.18993076 -0.22134734 0.13840750
C 0.30294597 0.44359726 -0.00015806
O 1.33727960 -1.33210552 -0.29878332
O 0.97138652 2.02623309 0.05405618
H -1.27957711 -0.71940124 -0.81125030
H -1.62151146 0.71005382 0.28039294
H -1.04160814 -0.88142879 0.97525740
H 2.52103940 -0.02537118 -0.33810793
8
Step 2: E=-225.79831538 Ha, F=0.050151 Ha/Bohr
C -0.95476800 -0.15890499 0.11276671
C 0.45140148 0.34058551 -0.02924490
O 1.33458857 -0.69303597 -0.24060624
O 0.83594012 1.51828286 0.02631171
H -1.25317525 -0.66957439 -0.80412560
H -1.61125306 0.69554127 0.27771035
H -1.01678999 -0.83051700 0.97044716
H 2.21405716 -0.20236732 -0.31326722
8
Step 3: E=-225.80019402 Ha, F=0.030121 Ha/Bohr
C -0.96970936 -0.16120224 0.11454830
C 0.45570896 0.35963756 -0.02809321
O 1.34327989 -0.71804731 -0.24402687
O 0.83983648 1.53138059 0.02696026
H -1.25661662 -0.67470595 -0.80558222
H -1.61519113 0.69781028 0.27844046
H -1.01985550 -0.83590445 0.97181545
H 2.22255811 -0.19894042 -0.31408868
8
Step 4: E=-225.80063916 Ha, F=0.020327 Ha/Bohr
C -0.97341762 -0.16005365 0.11514694
C 0.45843694 0.35600805 -0.02878786
O 1.34858733 -0.71955769 -0.24487440
O 0.84518795 1.54420446 0.02739092
H -1.26000647 -0.67905110 -0.80667353
H -1.62139720 0.70048206 0.27950902
H -1.02294764 -0.84045233 0.97296269
H 2.22557640 -0.20154240 -0.31472654
8
Step 5: E=-225.80084124 Ha, F=0.014804 Ha/Bohr
C -0.97344132 -0.15958972 0.11519211
C 0.46118436 0.35786671 -0.02898709
O 1.34990920 -0.71746560 -0.24486357
O 0.84636921 1.54425229 0.02722605
H -1.26191157 -0.68098939 -0.80651149
H -1.62500984 0.70165685 0.28009648
H -1.02487495 -0.84237580 0.97296074
H 2.22780063 -0.20331291 -0.31518339
8
Step 6: E=-225.80128315 Ha, F=0.009370 Ha/Bohr
C -0.97487621 -0.15638827 0.11567354
C 0.46932107 0.36524085 -0.02941457
O 1.35544166 -0.70916296 -0.24486130
O 0.85359142 1.54671473 0.02642257
H -1.27057595 -0.68891097 -0.80325626
H -1.64011854 0.70345670 0.28227066
H -1.03427332 -0.84979915 0.97071904
H 2.24154820 -0.21108301 -0.31771997
8
Step 7: E=-225.80142834 Ha, F=0.006615 Ha/Bohr
C -0.97626734 -0.15553571 0.11593593
C 0.47015655 0.36878617 -0.02921921
O 1.35868625 -0.70498139 -0.24492014
O 0.85846000 1.54893427 0.02592635
H -1.27481469 -0.69095674 -0.79808160
H -1.64684143 0.70049179 0.28289604
H -1.03975781 -0.85099718 0.96654520
H 2.25046333 -0.21565256 -0.31932382
8
Step 8: E=-225.80140779 Ha, F=0.013557 Ha/Bohr
C -0.97526668 -0.14875440 0.11641481
C 0.47317710 0.37121205 -0.02944409
O 1.35847132 -0.70375425 -0.24477213
O 0.86166063 1.55246604 0.02573318
H -1.27988065 -0.69156968 -0.79320348
H -1.65238809 0.69038621 0.28271601
H -1.04592441 -0.85085472 0.96312055
H 2.26029721 -0.21898333 -0.32094389
8
Step 9: E=-225.80146361 Ha, F=0.005626 Ha/Bohr
C -0.97589337 -0.15300135 0.11611490
C 0.47128541 0.36969279 -0.02930325
O 1.35860593 -0.70452278 -0.24486483
O 0.85965616 1.55025419 0.02585415
H -1.27670798 -0.69118581 -0.79625851
H -1.64891437 0.69671506 0.28282876
H -1.04206243 -0.85094394 0.96526532
H 2.25413852 -0.21689736 -0.31992929
8
Step 10: E=-225.80149152 Ha, F=0.001308 Ha/Bohr
C -0.97521301 -0.15347739 0.11597921
C 0.47084232 0.37123735 -0.02912312
O 1.36042726 -0.70369545 -0.24502942
O 0.86170811 1.55225358 0.02571882
H -1.27849426 -0.69053131 -0.79291265
H -1.65203868 0.69333598 0.28293725
H -1.04463700 -0.84974882 0.96266778
H 2.25754266 -0.21923606 -0.32059880
