10
Step 0: E=-280.30987628 Ha, F=0.130763 Ha/Bohr
C -1.37965809 0.16401096 -0.13466588
C 0.07892099 -0.07404605 -0.40445679
O 0.50307435 -0.48251728 -1.48336479
N 0.91024542 0.20126124 0.65514595
O 2.26705725 -0.15289504 0.45134470
H -1.78169015 0.82868754 -0.90403649
H -1.53634865 0.63085744 0.84183722
H -1.90851982 -0.79235003 -0.15754498
H 0.58244062 0.15068609 1.61393005
H 2.26447808 -0.47369486 -0.47818899
10
Step 1: E=-279.88758152 Ha, F=0.470197 Ha/Bohr
C -1.55689229 0.23221290 -0.03665128
C -0.18436680 -0.09966794 -0.39616332
O 0.76835129 -0.59333511 -1.80409174
N 1.05331433 0.34847881 0.54683511
O 2.58950240 -0.07031619 0.97037120
H -1.81449255 0.82623340 -0.92443162
H -1.55275836 0.63827692 0.85929000
H -1.94888111 -0.80700179 -0.17100478
H 0.55162724 0.11157580 1.84087826
H 2.09444268 -0.58638090 -0.88435101
10
Step 2: E=-280.31813623 Ha, F=0.060339 Ha/Bohr
C -1.38935594 0.16774281 -0.12930275
C 0.06451449 -0.07544802 -0.40400299
O 0.51758969 -0.48858097 -1.50091422
N 0.91807382 0.20931665 0.64921944
O 2.28470070 -0.14837652 0.47974462
H -1.78348503 0.82855326 -0.90515247
H -1.53724655 0.63126341 0.84279220
H -1.91072829 -0.79315174 -0.15828147
H 0.58075459 0.14854606 1.62634813
H 2.25517414 -0.47986078 -0.50041323
10
Step 3: E=-280.32129893 Ha, F=0.037169 Ha/Bohr
C -1.40280774 0.17071039 -0.12518809
C 0.06063861 -0.08511713 -0.42066704
O 0.53082381 -0.49014710 -1.50653759
N 0.92337627 0.22251663 0.65277073
O 2.30544451 -0.15112411 0.49232376
H -1.78726922 0.82884276 -0.90672039
H -1.53948389 0.63326264 0.84701263
H -1.91513107 -0.79395231 -0.15898473
H 0.58099663 0.14598347 1.63526613
H 2.24338382 -0.48097323 -0.50918323
10
Step 4: E=-280.32319184 Ha, F=0.036524 Ha/Bohr
C -1.41529076 0.17090848 -0.12622962
C 0.06093667 -0.09430336 -0.42463545
O 0.55463090 -0.49470567 -1.51995371
N 0.93222985 0.24262254 0.65309960
O 2.32305258 -0.16049300 0.49265073
H -1.79649197 0.83042499 -0.90936484
H -1.54340249 0.63769376 0.85628560
H -1.92557418 -0.79534556 -0.15947912
H 0.58270235 0.14055694 1.64434275
H 2.22712386 -0.47737097 -0.50653087
10
Step 5: E=-280.32472724 Ha, F=0.028286 Ha/Bohr
C -1.41968234 0.17026447 -0.12597576
C 0.07183635 -0.10578478 -0.43300985
O 0.57664609 -0.49462655 -1.51682023
N 0.94619918 0.26469304 0.65385694
O 2.32581338 -0.16944010 0.49243018
H -1.80980857 0.83269969 -0.91244829
H -1.54777136 0.64019608 0.86137798
H -1.94131888 -0.79687133 -0.15970316
H 0.58846977 0.13281407 1.64615922
H 2.20944939 -0.47399295 -0.50557341
10
Step 6: E=-280.32626552 Ha, F=0.026845 Ha/Bohr
C -1.41932648 0.16676905 -0.12971676
C 0.08349727 -0.11266847 -0.43082903
O 0.60644044 -0.49537675 -1.50902798
N 0.95603359 0.29374648 0.65790043
O 2.32371444 -0.18253147 0.48800257
H -1.82583827 0.83267432 -0.91238870
H -1.55193523 0.64047579 0.86199790
H -1.96130269 -0.79462016 -0.15930251
H 0.60022140 0.12140811 1.63817707
H 2.18821185 -0.47000362 -0.50438886
10
Step 7: E=-280.32790232 Ha, F=0.035169 Ha/Bohr
C -1.41940323 0.15790559 -0.13991031
C 0.09916453 -0.11241356 -0.41999171
O 0.65903158 -0.49576401 -1.47724655
N 0.97589988 0.34488354 0.64908855
O 2.31148098 -0.20419329 0.48073909
H -1.84805832 0.82639146 -0.90574252
H -1.55523435 0.63518180 0.85186325
H -1.99174334 -0.78330341 -0.15815248
H 0.61937010 0.09591405 1.62951166
H 2.14899496 -0.46493909 -0.50953452
10
Step 8: E=-280.32886864 Ha, F=0.028610 Ha/Bohr
C -1.41328063 0.15431515 -0.14247860
C 0.09608431 -0.09857068 -0.40856510
O 0.68890201 -0.50034792 -1.45281136
N 0.98043899 0.36997048 0.66762923
O 2.29896869 -0.21324588 0.47404296
H -1.85487398 0.82114491 -0.90257779
H -1.55273926 0.62727885 0.83710719
H -2.00429896 -0.77817022 -0.15830484
H 0.63363862 0.08389712 1.61085043
H 2.12654823 -0.46675680 -0.52420401
10
Step 9: E=-280.32948685 Ha, F=0.013975 Ha/Bohr
C -1.41256578 0.15429479 -0.14479567
C 0.09457076 -0.09077295 -0.40589141
O 0.67591320 -0.50018113 -1.44796583
N 0.97396495 0.35973821 0.66305260
O 2.29779003 -0.20774256 0.47338832
H -1.84671535 0.82003691 -0.90220128
H -1.54967904 0.62651817 0.83597054
H -1.99445032 -0.77850487 -0.15872994
H 0.62879752 0.08546361 1.61555123
H 2.13180426 -0.46931513 -0.52774799
10
Step 10: E=-280.32985186 Ha, F=0.011720 Ha/Bohr
C -1.41086102 0.15472063 -0.14600656
C 0.09295307 -0.08160173 -0.40074245
O 0.67584914 -0.50283348 -1.43781767
N 0.97156864 0.36264135 0.66270744
O 2.29631700 -0.20589936 0.46823900
H -1.84195969 0.81935446 -0.90450810
H -1.54648698 0.62477582 0.83308768
H -1.98839942 -0.78040698 -0.16028866
H 0.62639000 0.08081680 1.62135646
H 2.12405524 -0.47207072 -0.53544044
10
Step 11: E=-280.33024017 Ha, F=0.014377 Ha/Bohr
C -1.41016377 0.15555086 -0.14915201
C 0.09197581 -0.07099511 -0.39423644
O 0.67685423 -0.50774128 -1.42498075
N 0.97106346 0.36739949 0.66943799
O 2.29333832 -0.20179745 0.45878159
H -1.83499150 0.81904069 -0.90947046
H -1.54267074 0.62399329 0.83199335
H -1.97771496 -0.78419721 -0.16342097
H 0.62351141 0.07446228 1.62823051
H 2.10821233 -0.47628756 -0.54667288
